# p  FACE_DATA 64
# x  y  z  p
0.995433 -0.000644209 0.5 142.247
0.984831 -0.00212864 0.5 129.342
0.970874 -0.00405279 0.5 121.875
0.952651 -0.00651541 0.5 115.475
0.92911 -0.00961652 0.5 110.59
0.899115 -0.0134429 0.5 107.057
0.861558 -0.0180463 0.5 105.627
0.815544 -0.0234154 0.5 107.423
0.760644 -0.0294447 0.5 113.796
0.697166 -0.0359067 0.5 125.785
0.62637 -0.0424369 0.5 140.724
0.550507 -0.0485469 0.5 156.795
0.472613 -0.0536799 0.5 178.278
0.396061 -0.0573136 0.5 212.505
0.324014 -0.0590844 0.5 266.976
0.258939 -0.0588791 0.5 345.634
0.202341 -0.0568489 0.5 449.74
0.154745 -0.0533418 0.5 579.242
0.115879 -0.0487949 0.5 730.702
0.084939 -0.0436345 0.5 900.103
0.060851 -0.0382149 0.5 1081.29
0.0424779 -0.0327982 0.5 1253.05
0.0287493 -0.0275622 0.5 1366.91
0.0187286 -0.0226235 0.5 1362.5
0.0116303 -0.0180642 0.5 1164.39
0.00680434 -0.0139552 0.5 659.005
0.00370185 -0.0103648 0.5 -224.04
0.00184498 -0.00734508 0.5 -1388.01
0.000823383 -0.00490548 0.5 -2581.93
0.000313391 -0.00300173 0.5 -3579.85
8.97941e-05 -0.00155219 0.5 -4318.12
1.37904e-05 -0.000464655 0.5 -4796.73
1.37904e-05 0.000464655 0.5 -5212.41
8.97941e-05 0.00155219 0.5 -5591.74
0.000313391 0.00300173 0.5 -6159.74
0.000823383 0.00490548 0.5 -6739.49
0.00184498 0.00734508 0.5 -7144.43
0.00370185 0.0103648 0.5 -7211.93
0.00680434 0.0139552 0.5 -6832.83
0.0116303 0.0180642 0.5 -6103.55
0.0187286 0.0226235 0.5 -5254.4
0.0287493 0.0275622 0.5 -4457.65
0.0424779 0.0327982 0.5 -3770.89
0.060851 0.0382149 0.5 -3196.18
0.084939 0.0436345 0.5 -2716.27
0.115879 0.0487949 0.5 -2311.31
0.154745 0.0533418 0.5 -1961.12
0.202341 0.0568489 0.5 -1655.42
0.258939 0.0588791 0.5 -1386.75
0.324014 0.0590844 0.5 -1144.81
0.396061 0.0573136 0.5 -926.693
0.472613 0.0536799 0.5 -735.114
0.550507 0.0485469 0.5 -570.197
0.62637 0.0424369 0.5 -428.15
0.697166 0.0359067 0.5 -307.17
0.760644 0.0294447 0.5 -203.289
0.815544 0.0234154 0.5 -119.783
0.861558 0.0180463 0.5 -51.5769
0.899115 0.0134429 0.5 -1.72481
0.92911 0.00961652 0.5 36.9617
0.952651 0.00651541 0.5 63.2686
0.970874 0.00405279 0.5 80.4123
0.984831 0.00212864 0.5 95.1708
0.995433 0.000644209 0.5 110.08
