# p  FACE_DATA 64
# x  y  z  p
0.995433 -0.000644209 0.5 0
0.984831 -0.00212864 0.5 0
0.970874 -0.00405279 0.5 0
0.952651 -0.00651541 0.5 0
0.92911 -0.00961652 0.5 0
0.899115 -0.0134429 0.5 0
0.861558 -0.0180463 0.5 0
0.815544 -0.0234154 0.5 0
0.760644 -0.0294447 0.5 0
0.697166 -0.0359067 0.5 0
0.62637 -0.0424369 0.5 0
0.550507 -0.0485469 0.5 0
0.472613 -0.0536799 0.5 0
0.396061 -0.0573136 0.5 0
0.324014 -0.0590844 0.5 0
0.258939 -0.0588791 0.5 0
0.202341 -0.0568489 0.5 0
0.154745 -0.0533418 0.5 0
0.115879 -0.0487949 0.5 0
0.084939 -0.0436345 0.5 0
0.060851 -0.0382149 0.5 0
0.0424779 -0.0327982 0.5 0
0.0287493 -0.0275622 0.5 0
0.0187286 -0.0226235 0.5 0
0.0116303 -0.0180642 0.5 0
0.00680434 -0.0139552 0.5 0
0.00370185 -0.0103648 0.5 0
0.00184498 -0.00734508 0.5 0
0.000823383 -0.00490548 0.5 0
0.000313391 -0.00300173 0.5 0
8.97941e-05 -0.00155219 0.5 0
1.37904e-05 -0.000464655 0.5 0
1.37904e-05 0.000464655 0.5 0
8.97941e-05 0.00155219 0.5 0
0.000313391 0.00300173 0.5 0
0.000823383 0.00490548 0.5 0
0.00184498 0.00734508 0.5 0
0.00370185 0.0103648 0.5 0
0.00680434 0.0139552 0.5 0
0.0116303 0.0180642 0.5 0
0.0187286 0.0226235 0.5 0
0.0287493 0.0275622 0.5 0
0.0424779 0.0327982 0.5 0
0.060851 0.0382149 0.5 0
0.084939 0.0436345 0.5 0
0.115879 0.0487949 0.5 0
0.154745 0.0533418 0.5 0
0.202341 0.0568489 0.5 0
0.258939 0.0588791 0.5 0
0.324014 0.0590844 0.5 0
0.396061 0.0573136 0.5 0
0.472613 0.0536799 0.5 0
0.550507 0.0485469 0.5 0
0.62637 0.0424369 0.5 0
0.697166 0.0359067 0.5 0
0.760644 0.0294447 0.5 0
0.815544 0.0234154 0.5 0
0.861558 0.0180463 0.5 0
0.899115 0.0134429 0.5 0
0.92911 0.00961652 0.5 0
0.952651 0.00651541 0.5 0
0.970874 0.00405279 0.5 0
0.984831 0.00212864 0.5 0
0.995433 0.000644209 0.5 0
