# Force coefficients
# dragDir     : (9.848075e-01 1.736493e-01 0.000000e+00)
# sideDir     : (0.000000e+00 0.000000e+00 -1.000000e+00)
# liftDir     : (-1.736493e-01 9.848075e-01 0.000000e+00)
# rollAxis    : (9.848075e-01 1.736493e-01 0.000000e+00)
# pitchAxis   : (0.000000e+00 0.000000e+00 -1.000000e+00)
# yawAxis     : (-1.736493e-01 9.848075e-01 0.000000e+00)
# magUInf     : 5.148150e+01
# lRef        : 1.000000e+00
# Aref        : 1.000000e+00
# CofR        : (0.000000e+00 0.000000e+00 0.000000e+00)
#
# Time        	Cd            	Cs            	Cl            	CmRoll        	CmPitch       	CmYaw         	Cd(f)         	Cd(r)         	Cs(f)         	Cs(r)         	Cl(f)         	Cl(r)         
1             	1.333272e+00	1.527942e-20	3.885249e+00	-1.942625e+00	-1.967457e+00	6.666359e-01	-1.275989e+00	2.609261e+00	6.666359e-01	-6.666359e-01	-2.483229e-02	3.910082e+00
2             	7.486318e-01	-3.197811e-21	2.536744e+00	-1.268372e+00	-1.178801e+00	3.743159e-01	-8.940559e-01	1.642688e+00	3.743159e-01	-3.743159e-01	8.957052e-02	2.447173e+00
3             	-8.366750e-01	8.593741e-21	-1.329394e+00	6.646970e-01	8.244836e-01	-4.183375e-01	2.463595e-01	-1.083034e+00	-4.183375e-01	4.183375e-01	1.597866e-01	-1.489181e+00
4             	-1.439486e+00	1.031760e-20	-2.274856e+00	1.137428e+00	1.302709e+00	-7.197431e-01	4.176849e-01	-1.857171e+00	-7.197431e-01	7.197431e-01	1.652814e-01	-2.440137e+00
5             	-3.833718e-01	1.094349e-20	-3.467975e-01	1.733988e-01	2.852229e-01	-1.916859e-01	-1.828714e-02	-3.650847e-01	-1.916859e-01	1.916859e-01	1.118241e-01	-4.586216e-01
6             	6.718497e-01	-9.453124e-21	1.788817e+00	-8.944086e-01	-8.440087e-01	3.359248e-01	-5.584838e-01	1.230333e+00	3.359248e-01	-3.359248e-01	5.039995e-02	1.738417e+00
7             	1.159194e+00	-3.833412e-21	2.105022e+00	-1.052511e+00	-9.821948e-01	5.795970e-01	-4.729140e-01	1.632108e+00	5.795970e-01	-5.795970e-01	7.031623e-02	2.034706e+00
8             	4.336460e-01	-2.356448e-21	9.286615e-01	-4.643308e-01	-2.857118e-01	2.168230e-01	-2.475077e-01	6.811538e-01	2.168230e-01	-2.168230e-01	1.786189e-01	7.500426e-01
9             	-2.435666e-01	6.125610e-21	-2.927745e-01	1.463872e-01	4.025773e-01	-1.217833e-01	2.460393e-02	-2.681706e-01	-1.217833e-01	1.217833e-01	2.561901e-01	-5.489646e-01
10            	-4.463567e-01	6.915580e-21	-6.701833e-02	3.350917e-02	2.449895e-01	-2.231784e-01	-1.896692e-01	-2.566875e-01	-2.231784e-01	2.231784e-01	2.114803e-01	-2.784987e-01
11            	-1.886550e-01	-1.114764e-21	6.529224e-01	-3.264612e-01	-2.123980e-01	-9.432749e-02	-4.207887e-01	2.321337e-01	-9.432749e-02	9.432749e-02	1.140632e-01	5.388592e-01
12            	2.328942e-01	6.952701e-21	1.242723e+00	-6.213613e-01	-5.337142e-01	1.164471e-01	-5.049142e-01	7.378084e-01	1.164471e-01	-1.164471e-01	8.764706e-02	1.155076e+00
13            	2.868835e-01	2.791928e-21	9.718823e-01	-4.859411e-01	-3.451585e-01	1.434418e-01	-3.424994e-01	6.293829e-01	1.434418e-01	-1.434418e-01	1.407827e-01	8.310996e-01
14            	1.212722e-01	2.609413e-21	5.274160e-01	-2.637080e-01	-4.327269e-02	6.063612e-02	-2.030719e-01	3.243441e-01	6.063612e-02	-6.063612e-02	2.204353e-01	3.069807e-01
15            	-1.933304e-03	4.473843e-21	4.931830e-01	-2.465915e-01	-2.242656e-02	-9.666521e-04	-2.475582e-01	2.456249e-01	-9.666521e-04	9.666521e-04	2.241650e-01	2.690181e-01
16            	2.593169e-02	3.823727e-21	7.247015e-01	-3.623508e-01	-2.030809e-01	1.296584e-02	-3.493849e-01	3.753166e-01	1.296584e-02	-1.296584e-02	1.592699e-01	5.654316e-01
17            	7.887145e-02	2.657554e-21	9.023803e-01	-4.511901e-01	-3.206575e-01	3.943572e-02	-4.117544e-01	4.906259e-01	3.943572e-02	-3.943572e-02	1.305327e-01	7.718476e-01
18            	9.612484e-02	1.650339e-21	8.414915e-01	-4.207458e-01	-2.502587e-01	4.806242e-02	-3.726833e-01	4.688082e-01	4.806242e-02	-4.806242e-02	1.704871e-01	6.710044e-01
19            	7.350318e-02	-1.983079e-21	6.956651e-01	-3.478326e-01	-1.175095e-01	3.675159e-02	-3.110810e-01	3.845842e-01	3.675159e-02	-3.675159e-02	2.303230e-01	4.653421e-01
20            	3.805125e-02	-2.243306e-21	6.643442e-01	-3.321721e-01	-8.684960e-02	1.902562e-02	-3.131465e-01	3.511977e-01	1.902562e-02	-1.902562e-02	2.453225e-01	4.190217e-01
21            	3.245551e-02	-4.737635e-22	7.430863e-01	-3.715432e-01	-1.651494e-01	1.622776e-02	-3.553154e-01	3.877709e-01	1.622776e-02	-1.622776e-02	2.063937e-01	5.366926e-01
22            	5.452946e-02	1.662578e-21	8.339564e-01	-4.169782e-01	-2.512775e-01	2.726473e-02	-3.897135e-01	4.442429e-01	2.726473e-02	-2.726473e-02	1.657007e-01	6.682557e-01
23            	7.781608e-02	3.039493e-21	8.556151e-01	-4.278075e-01	-2.575439e-01	3.890804e-02	-3.888995e-01	4.667156e-01	3.890804e-02	-3.890804e-02	1.702636e-01	6.853514e-01
24            	7.768008e-02	2.948021e-21	8.114469e-01	-4.057234e-01	-1.920467e-01	3.884004e-02	-3.668834e-01	4.445635e-01	3.884004e-02	-3.884004e-02	2.136767e-01	5.977702e-01
25            	5.589007e-02	1.934943e-21	7.689529e-01	-3.844765e-01	-1.319279e-01	2.794503e-02	-3.565314e-01	4.124215e-01	2.794503e-02	-2.794503e-02	2.525485e-01	5.164044e-01
26            	3.210860e-02	1.219633e-21	7.689139e-01	-3.844570e-01	-1.296248e-01	1.605430e-02	-3.684027e-01	4.005113e-01	1.605430e-02	-1.605430e-02	2.548322e-01	5.140818e-01
27            	2.689114e-02	1.246387e-21	8.124433e-01	-4.062216e-01	-1.807278e-01	1.344557e-02	-3.927761e-01	4.196672e-01	1.344557e-02	-1.344557e-02	2.254938e-01	5.869495e-01
28            	4.080604e-02	1.731761e-21	8.591539e-01	-4.295770e-01	-2.338371e-01	2.040302e-02	-4.091739e-01	4.499800e-01	2.040302e-02	-2.040302e-02	1.957398e-01	6.634141e-01
29            	5.752516e-02	1.761910e-21	8.771009e-01	-4.385504e-01	-2.467122e-01	2.876258e-02	-4.097879e-01	4.673130e-01	2.876258e-02	-2.876258e-02	1.918382e-01	6.852627e-01
30            	6.102012e-02	1.114235e-21	8.631070e-01	-4.315535e-01	-2.189569e-01	3.051006e-02	-4.010434e-01	4.620636e-01	3.051006e-02	-3.051006e-02	2.125967e-01	6.505104e-01
31            	4.990496e-02	6.882633e-23	8.391260e-01	-4.195630e-01	-1.813789e-01	2.495248e-02	-3.946105e-01	4.445155e-01	2.495248e-02	-2.495248e-02	2.381841e-01	6.009419e-01
32            	3.553358e-02	-5.240152e-22	8.285644e-01	-4.142822e-01	-1.651987e-01	1.776679e-02	-3.965154e-01	4.320490e-01	1.776679e-02	-1.776679e-02	2.490835e-01	5.794809e-01
33            	3.016974e-02	-3.677646e-22	8.418429e-01	-4.209215e-01	-1.791138e-01	1.508487e-02	-4.058366e-01	4.360063e-01	1.508487e-02	-1.508487e-02	2.418077e-01	6.000353e-01
34            	3.588185e-02	4.251649e-22	8.703275e-01	-4.351637e-01	-2.081170e-01	1.794092e-02	-4.172228e-01	4.531047e-01	1.794092e-02	-1.794092e-02	2.270467e-01	6.432808e-01
35            	4.498693e-02	1.283570e-21	8.961417e-01	-4.480709e-01	-2.298118e-01	2.249347e-02	-4.255774e-01	4.705643e-01	2.249347e-02	-2.249347e-02	2.182590e-01	6.778827e-01
36            	4.790163e-02	1.620976e-21	9.029355e-01	-4.514678e-01	-2.300355e-01	2.395081e-02	-4.275170e-01	4.754186e-01	2.395081e-02	-2.395081e-02	2.214323e-01	6.815032e-01
37            	4.206421e-02	1.377206e-21	8.895054e-01	-4.447527e-01	-2.123082e-01	2.103210e-02	-4.237206e-01	4.657848e-01	2.103210e-02	-2.103210e-02	2.324445e-01	6.570609e-01
38            	3.295749e-02	8.946913e-22	8.703299e-01	-4.351649e-01	-1.929478e-01	1.647874e-02	-4.186862e-01	4.516437e-01	1.647874e-02	-1.647874e-02	2.422172e-01	6.281127e-01
39            	2.802784e-02	4.639097e-22	8.634674e-01	-4.317337e-01	-1.874074e-01	1.401392e-02	-4.177198e-01	4.457476e-01	1.401392e-02	-1.401392e-02	2.443263e-01	6.191411e-01
40            	3.038066e-02	2.377927e-22	8.761452e-01	-4.380726e-01	-1.997383e-01	1.519033e-02	-4.228823e-01	4.532629e-01	1.519033e-02	-1.519033e-02	2.383343e-01	6.378109e-01
41            	3.694142e-02	6.674053e-23	9.009441e-01	-4.504720e-01	-2.205472e-01	1.847071e-02	-4.320013e-01	4.689427e-01	1.847071e-02	-1.847071e-02	2.299248e-01	6.710193e-01
42            	4.173381e-02	3.282555e-24	9.208761e-01	-4.604381e-01	-2.351504e-01	2.086691e-02	-4.395712e-01	4.813050e-01	2.086691e-02	-2.086691e-02	2.252877e-01	6.955885e-01
43            	4.159875e-02	-2.474172e-23	9.255463e-01	-4.627731e-01	-2.359653e-01	2.079937e-02	-4.419738e-01	4.835725e-01	2.079937e-02	-2.079937e-02	2.268078e-01	6.987385e-01
44            	3.701330e-02	9.646223e-23	9.155862e-01	-4.577931e-01	-2.246110e-01	1.850665e-02	-4.392865e-01	4.762998e-01	1.850665e-02	-1.850665e-02	2.331821e-01	6.824041e-01
45            	3.150119e-02	2.502222e-22	9.013013e-01	-4.506506e-01	-2.107566e-01	1.575060e-02	-4.349000e-01	4.664012e-01	1.575060e-02	-1.575060e-02	2.398941e-01	6.614072e-01
46            	2.831077e-02	3.661318e-22	8.938525e-01	-4.469263e-01	-2.037105e-01	1.415539e-02	-4.327709e-01	4.610816e-01	1.415539e-02	-1.415539e-02	2.432158e-01	6.506368e-01
47            	2.823971e-02	4.576195e-22	8.969866e-01	-4.484933e-01	-2.060259e-01	1.411985e-02	-4.343735e-01	4.626132e-01	1.411985e-02	-1.411985e-02	2.424674e-01	6.545192e-01
48            	2.979850e-02	5.097726e-22	9.052490e-01	-4.526245e-01	-2.134868e-01	1.489925e-02	-4.377252e-01	4.675237e-01	1.489925e-02	-1.489925e-02	2.391377e-01	6.661113e-01
49            	3.131738e-02	5.348168e-22	9.128864e-01	-4.564432e-01	-2.206289e-01	1.565869e-02	-4.407845e-01	4.721019e-01	1.565869e-02	-1.565869e-02	2.358143e-01	6.770721e-01
50            	3.180248e-02	5.353081e-22	9.163712e-01	-4.581856e-01	-2.239156e-01	1.590124e-02	-4.422843e-01	4.740868e-01	1.590124e-02	-1.590124e-02	2.342700e-01	6.821011e-01
51            	3.132115e-02	5.579609e-22	9.160677e-01	-4.580339e-01	-2.233242e-01	1.566057e-02	-4.423733e-01	4.736944e-01	1.566057e-02	-1.566057e-02	2.347097e-01	6.813580e-01
52            	3.048854e-02	6.002515e-22	9.146892e-01	-4.573446e-01	-2.210301e-01	1.524427e-02	-4.421003e-01	4.725888e-01	1.524427e-02	-1.524427e-02	2.363145e-01	6.783746e-01
53            	2.969652e-02	6.589685e-22	9.140739e-01	-4.570369e-01	-2.187294e-01	1.484826e-02	-4.421887e-01	4.718852e-01	1.484826e-02	-1.484826e-02	2.383076e-01	6.757663e-01
54            	2.880618e-02	7.227561e-22	9.135475e-01	-4.567738e-01	-2.166167e-01	1.440309e-02	-4.423707e-01	4.711769e-01	1.440309e-02	-1.440309e-02	2.401571e-01	6.733905e-01
55            	2.766635e-02	6.980701e-22	9.119247e-01	-4.559624e-01	-2.143166e-01	1.383318e-02	-4.421292e-01	4.697955e-01	1.383318e-02	-1.383318e-02	2.416458e-01	6.702790e-01
56            	2.636446e-02	6.343514e-22	9.090080e-01	-4.545040e-01	-2.118515e-01	1.318223e-02	-4.413218e-01	4.676862e-01	1.318223e-02	-1.318223e-02	2.426525e-01	6.663555e-01
57            	2.520542e-02	5.792842e-22	9.058114e-01	-4.529057e-01	-2.097877e-01	1.260271e-02	-4.403030e-01	4.655084e-01	1.260271e-02	-1.260271e-02	2.431180e-01	6.626934e-01
58            	2.450505e-02	5.783971e-22	9.037414e-01	-4.518707e-01	-2.088305e-01	1.225252e-02	-4.396182e-01	4.641232e-01	1.225252e-02	-1.225252e-02	2.430402e-01	6.607012e-01
59            	2.443110e-02	6.547427e-22	9.036541e-01	-4.518270e-01	-2.092958e-01	1.221555e-02	-4.396115e-01	4.640426e-01	1.221555e-02	-1.221555e-02	2.425313e-01	6.611228e-01
60            	2.472896e-02	7.788766e-22	9.051261e-01	-4.525631e-01	-2.104807e-01	1.236448e-02	-4.401986e-01	4.649275e-01	1.236448e-02	-1.236448e-02	2.420823e-01	6.630438e-01
61            	2.501720e-02	9.087492e-22	9.067643e-01	-4.533821e-01	-2.113898e-01	1.250860e-02	-4.408735e-01	4.658907e-01	1.250860e-02	-1.250860e-02	2.419924e-01	6.647719e-01
62            	2.497645e-02	1.009295e-21	9.073616e-01	-4.536808e-01	-2.112782e-01	1.248823e-02	-4.411926e-01	4.661690e-01	1.248823e-02	-1.248823e-02	2.424026e-01	6.649590e-01
63            	2.449732e-02	1.072990e-21	9.064223e-01	-4.532111e-01	-2.099610e-01	1.224866e-02	-4.409625e-01	4.654598e-01	1.224866e-02	-1.224866e-02	2.432502e-01	6.631721e-01
64            	2.372222e-02	1.109945e-21	9.043343e-01	-4.521672e-01	-2.078690e-01	1.186111e-02	-4.403061e-01	4.640283e-01	1.186111e-02	-1.186111e-02	2.442982e-01	6.600361e-01
65            	2.299526e-02	1.139554e-21	9.022299e-01	-4.511149e-01	-2.059240e-01	1.149763e-02	-4.396173e-01	4.626126e-01	1.149763e-02	-1.149763e-02	2.451910e-01	6.570389e-01
66            	2.247992e-02	1.164132e-21	9.007507e-01	-4.503753e-01	-2.045733e-01	1.123996e-02	-4.391354e-01	4.616153e-01	1.123996e-02	-1.123996e-02	2.458020e-01	6.549487e-01
67            	2.223152e-02	1.180463e-21	9.002035e-01	-4.501017e-01	-2.039324e-01	1.111576e-02	-4.389860e-01	4.612175e-01	1.111576e-02	-1.111576e-02	2.461693e-01	6.540341e-01
68            	2.214697e-02	1.192641e-21	9.002171e-01	-4.501086e-01	-2.037551e-01	1.107348e-02	-4.390351e-01	4.611820e-01	1.107348e-02	-1.107348e-02	2.463534e-01	6.538637e-01
69            	2.207409e-02	1.195674e-21	9.002417e-01	-4.501208e-01	-2.036236e-01	1.103705e-02	-4.390838e-01	4.611579e-01	1.103705e-02	-1.103705e-02	2.464973e-01	6.537444e-01
70            	2.192733e-02	1.205294e-21	8.999662e-01	-4.499831e-01	-2.032858e-01	1.096367e-02	-4.390194e-01	4.609468e-01	1.096367e-02	-1.096367e-02	2.466973e-01	6.532689e-01
71            	2.171782e-02	1.217861e-21	8.994392e-01	-4.497196e-01	-2.027288e-01	1.085891e-02	-4.388607e-01	4.605785e-01	1.085891e-02	-1.085891e-02	2.469908e-01	6.524484e-01
72            	2.149968e-02	1.240692e-21	8.988218e-01	-4.494109e-01	-2.020742e-01	1.074984e-02	-4.386610e-01	4.601607e-01	1.074984e-02	-1.074984e-02	2.473367e-01	6.514851e-01
73            	2.138547e-02	1.273067e-21	8.985836e-01	-4.492918e-01	-2.016148e-01	1.069273e-02	-4.385991e-01	4.599845e-01	1.069273e-02	-1.069273e-02	2.476770e-01	6.509066e-01
74            	2.134413e-02	1.315134e-21	8.986891e-01	-4.493445e-01	-2.013348e-01	1.067206e-02	-4.386725e-01	4.600166e-01	1.067206e-02	-1.067206e-02	2.480097e-01	6.506793e-01
75            	2.134998e-02	1.352609e-21	8.991008e-01	-4.495504e-01	-2.012026e-01	1.067499e-02	-4.388754e-01	4.602254e-01	1.067499e-02	-1.067499e-02	2.483478e-01	6.507530e-01
76            	2.133900e-02	1.391904e-21	8.995455e-01	-4.497728e-01	-2.010933e-01	1.066950e-02	-4.391033e-01	4.604423e-01	1.066950e-02	-1.066950e-02	2.486795e-01	6.508661e-01
77            	2.130425e-02	1.418851e-21	9.000050e-01	-4.500025e-01	-2.009814e-01	1.065213e-02	-4.393504e-01	4.606546e-01	1.065213e-02	-1.065213e-02	2.490212e-01	6.509839e-01
78            	2.121788e-02	1.450903e-21	9.002728e-01	-4.501364e-01	-2.007871e-01	1.060894e-02	-4.395275e-01	4.607454e-01	1.060894e-02	-1.060894e-02	2.493493e-01	6.509236e-01
79            	2.113022e-02	1.471797e-21	9.004812e-01	-4.502406e-01	-2.005921e-01	1.056511e-02	-4.396755e-01	4.608057e-01	1.056511e-02	-1.056511e-02	2.496485e-01	6.508327e-01
80            	2.108984e-02	1.503006e-21	9.008454e-01	-4.504227e-01	-2.005198e-01	1.054492e-02	-4.398778e-01	4.609676e-01	1.054492e-02	-1.054492e-02	2.499029e-01	6.509425e-01
81            	2.112369e-02	1.525945e-21	9.014902e-01	-4.507451e-01	-2.006152e-01	1.056185e-02	-4.401833e-01	4.613069e-01	1.056185e-02	-1.056185e-02	2.501299e-01	6.513603e-01
82            	2.121069e-02	1.556768e-21	9.024620e-01	-4.512310e-01	-2.008596e-01	1.060534e-02	-4.406257e-01	4.618364e-01	1.060534e-02	-1.060534e-02	2.503714e-01	6.520906e-01
83            	2.131465e-02	1.583273e-21	9.035940e-01	-4.517970e-01	-2.011584e-01	1.065732e-02	-4.411397e-01	4.624543e-01	1.065732e-02	-1.065732e-02	2.506386e-01	6.529554e-01
84            	2.137948e-02	1.612140e-21	9.046803e-01	-4.523402e-01	-2.013995e-01	1.068974e-02	-4.416504e-01	4.630299e-01	1.068974e-02	-1.068974e-02	2.509407e-01	6.537396e-01
85            	2.143107e-02	1.633031e-21	9.058521e-01	-4.529260e-01	-2.016618e-01	1.071554e-02	-4.422105e-01	4.636416e-01	1.071554e-02	-1.071554e-02	2.512643e-01	6.545878e-01
86            	2.146053e-02	1.657939e-21	9.070530e-01	-4.535265e-01	-2.019329e-01	1.073027e-02	-4.427963e-01	4.642568e-01	1.073027e-02	-1.073027e-02	2.515937e-01	6.554594e-01
87            	2.147933e-02	1.676855e-21	9.082075e-01	-4.541038e-01	-2.022046e-01	1.073966e-02	-4.433641e-01	4.648434e-01	1.073966e-02	-1.073966e-02	2.518991e-01	6.563084e-01
88            	2.151583e-02	1.697816e-21	9.094803e-01	-4.547401e-01	-2.025548e-01	1.075792e-02	-4.439822e-01	4.654980e-01	1.075792e-02	-1.075792e-02	2.521854e-01	6.572949e-01
89            	2.159669e-02	1.713356e-21	9.109971e-01	-4.554985e-01	-2.030407e-01	1.079834e-02	-4.447002e-01	4.662969e-01	1.079834e-02	-1.079834e-02	2.524579e-01	6.585392e-01
90            	2.167441e-02	1.729808e-21	9.125865e-01	-4.562933e-01	-2.035489e-01	1.083721e-02	-4.454561e-01	4.671305e-01	1.083721e-02	-1.083721e-02	2.527444e-01	6.598421e-01
91            	2.173888e-02	1.744163e-21	9.141752e-01	-4.570876e-01	-2.040422e-01	1.086944e-02	-4.462182e-01	4.679570e-01	1.086944e-02	-1.086944e-02	2.530454e-01	6.611298e-01
92            	2.179280e-02	1.755164e-21	9.158014e-01	-4.579007e-01	-2.045396e-01	1.089640e-02	-4.470043e-01	4.687971e-01	1.089640e-02	-1.089640e-02	2.533611e-01	6.624403e-01
93            	2.185751e-02	1.771532e-21	9.175596e-01	-4.587798e-01	-2.051072e-01	1.092875e-02	-4.478511e-01	4.697086e-01	1.092875e-02	-1.092875e-02	2.536726e-01	6.638870e-01
94            	2.191926e-02	1.775289e-21	9.194048e-01	-4.597024e-01	-2.057183e-01	1.095963e-02	-4.487428e-01	4.706621e-01	1.095963e-02	-1.095963e-02	2.539841e-01	6.654207e-01
95            	2.197167e-02	1.798012e-21	9.212782e-01	-4.606391e-01	-2.063483e-01	1.098584e-02	-4.496533e-01	4.716249e-01	1.098584e-02	-1.098584e-02	2.542908e-01	6.669874e-01
96            	2.202139e-02	1.794661e-21	9.232075e-01	-4.616038e-01	-2.070026e-01	1.101070e-02	-4.505931e-01	4.726145e-01	1.101070e-02	-1.101070e-02	2.546011e-01	6.686064e-01
97            	2.207055e-02	1.817274e-21	9.252035e-01	-4.626018e-01	-2.076866e-01	1.103528e-02	-4.515665e-01	4.736370e-01	1.103528e-02	-1.103528e-02	2.549151e-01	6.702884e-01
98            	2.211773e-02	1.811714e-21	9.272418e-01	-4.636209e-01	-2.083827e-01	1.105887e-02	-4.525621e-01	4.746798e-01	1.105887e-02	-1.105887e-02	2.552383e-01	6.720036e-01
99            	2.214876e-02	1.830395e-21	9.292531e-01	-4.646266e-01	-2.090624e-01	1.107438e-02	-4.535522e-01	4.757010e-01	1.107438e-02	-1.107438e-02	2.555642e-01	6.736890e-01
100           	2.217111e-02	1.822278e-21	9.312749e-01	-4.656374e-01	-2.097469e-01	1.108555e-02	-4.545519e-01	4.767230e-01	1.108555e-02	-1.108555e-02	2.558905e-01	6.753843e-01
101           	2.220538e-02	1.840088e-21	9.334231e-01	-4.667116e-01	-2.105014e-01	1.110269e-02	-4.556089e-01	4.778142e-01	1.110269e-02	-1.110269e-02	2.562102e-01	6.772129e-01
102           	2.224531e-02	1.829042e-21	9.356372e-01	-4.678186e-01	-2.112921e-01	1.112266e-02	-4.566959e-01	4.789412e-01	1.112266e-02	-1.112266e-02	2.565264e-01	6.791107e-01
103           	2.227509e-02	1.844366e-21	9.378495e-01	-4.689247e-01	-2.120868e-01	1.113755e-02	-4.577872e-01	4.800623e-01	1.113755e-02	-1.113755e-02	2.568379e-01	6.810116e-01
104           	2.229011e-02	1.831935e-21	9.400515e-01	-4.700258e-01	-2.128737e-01	1.114505e-02	-4.588807e-01	4.811708e-01	1.114505e-02	-1.114505e-02	2.571520e-01	6.828995e-01
105           	2.229756e-02	1.846578e-21	9.422781e-01	-4.711391e-01	-2.136748e-01	1.114878e-02	-4.599903e-01	4.822878e-01	1.114878e-02	-1.114878e-02	2.574643e-01	6.848139e-01
106           	2.231637e-02	1.831211e-21	9.445683e-01	-4.722841e-01	-2.145081e-01	1.115819e-02	-4.611260e-01	4.834423e-01	1.115819e-02	-1.115819e-02	2.577760e-01	6.867922e-01
107           	2.232049e-02	1.842023e-21	9.468110e-01	-4.734055e-01	-2.153217e-01	1.116025e-02	-4.622452e-01	4.845657e-01	1.116025e-02	-1.116025e-02	2.580837e-01	6.887272e-01
108           	2.231637e-02	1.826274e-21	9.490444e-01	-4.745222e-01	-2.161293e-01	1.115818e-02	-4.633640e-01	4.856804e-01	1.115818e-02	-1.115818e-02	2.583929e-01	6.906515e-01
109           	2.231096e-02	1.834663e-21	9.513031e-01	-4.756516e-01	-2.169591e-01	1.115548e-02	-4.644961e-01	4.868070e-01	1.115548e-02	-1.115548e-02	2.586925e-01	6.926106e-01
110           	2.230750e-02	1.817803e-21	9.536024e-01	-4.768012e-01	-2.178089e-01	1.115375e-02	-4.656475e-01	4.879550e-01	1.115375e-02	-1.115375e-02	2.589923e-01	6.946101e-01
111           	2.229851e-02	1.824204e-21	9.558754e-01	-4.779377e-01	-2.186523e-01	1.114925e-02	-4.667885e-01	4.890870e-01	1.114925e-02	-1.114925e-02	2.592854e-01	6.965900e-01
112           	2.228267e-02	1.806267e-21	9.581196e-01	-4.790598e-01	-2.194778e-01	1.114134e-02	-4.679185e-01	4.902011e-01	1.114134e-02	-1.114134e-02	2.595820e-01	6.985376e-01
113           	2.226035e-02	1.813106e-21	9.603655e-01	-4.801827e-01	-2.203093e-01	1.113017e-02	-4.690526e-01	4.913129e-01	1.113017e-02	-1.113017e-02	2.598735e-01	7.004920e-01
114           	2.223494e-02	1.795613e-21	9.626113e-01	-4.813057e-01	-2.211385e-01	1.111747e-02	-4.701882e-01	4.924231e-01	1.111747e-02	-1.111747e-02	2.601672e-01	7.024441e-01
115           	2.220785e-02	1.801009e-21	9.648353e-01	-4.824176e-01	-2.219658e-01	1.110392e-02	-4.713137e-01	4.935216e-01	1.110392e-02	-1.110392e-02	2.604518e-01	7.043834e-01
116           	2.217149e-02	1.783570e-21	9.670033e-01	-4.835016e-01	-2.227653e-01	1.108574e-02	-4.724159e-01	4.945874e-01	1.108574e-02	-1.108574e-02	2.607364e-01	7.062669e-01
117           	2.213432e-02	1.790416e-21	9.691776e-01	-4.845888e-01	-2.235745e-01	1.106716e-02	-4.735216e-01	4.956560e-01	1.106716e-02	-1.106716e-02	2.610143e-01	7.081633e-01
118           	2.210188e-02	1.773654e-21	9.713905e-01	-4.856952e-01	-2.244001e-01	1.105094e-02	-4.746443e-01	4.967462e-01	1.105094e-02	-1.105094e-02	2.612952e-01	7.100953e-01
119           	2.205728e-02	1.779080e-21	9.735252e-01	-4.867626e-01	-2.251938e-01	1.102864e-02	-4.757340e-01	4.977912e-01	1.102864e-02	-1.102864e-02	2.615688e-01	7.119564e-01
120           	2.200004e-02	1.761806e-21	9.755808e-01	-4.877904e-01	-2.259424e-01	1.100002e-02	-4.767904e-01	4.987904e-01	1.100002e-02	-1.100002e-02	2.618480e-01	7.137328e-01
121           	2.193338e-02	1.768789e-21	9.775844e-01	-4.887922e-01	-2.266696e-01	1.096669e-02	-4.778255e-01	4.997589e-01	1.096669e-02	-1.096669e-02	2.621226e-01	7.154618e-01
122           	2.187739e-02	1.754160e-21	9.796308e-01	-4.898154e-01	-2.274205e-01	1.093869e-02	-4.788767e-01	5.007541e-01	1.093869e-02	-1.093869e-02	2.623949e-01	7.172359e-01
123           	2.182694e-02	1.758960e-21	9.816743e-01	-4.908372e-01	-2.281809e-01	1.091347e-02	-4.799237e-01	5.017506e-01	1.091347e-02	-1.091347e-02	2.626563e-01	7.190181e-01
124           	2.176729e-02	1.741724e-21	9.836507e-01	-4.918253e-01	-2.289033e-01	1.088364e-02	-4.809417e-01	5.027090e-01	1.088364e-02	-1.088364e-02	2.629220e-01	7.207286e-01
125           	2.168995e-02	1.752184e-21	9.855481e-01	-4.927740e-01	-2.295870e-01	1.084498e-02	-4.819291e-01	5.036190e-01	1.084498e-02	-1.084498e-02	2.631871e-01	7.223610e-01
126           	2.161657e-02	1.736293e-21	9.874199e-01	-4.937100e-01	-2.302580e-01	1.080829e-02	-4.829017e-01	5.045182e-01	1.080829e-02	-1.080829e-02	2.634520e-01	7.239680e-01
127           	2.154455e-02	1.741693e-21	9.892948e-01	-4.946474e-01	-2.309324e-01	1.077227e-02	-4.838751e-01	5.054197e-01	1.077227e-02	-1.077227e-02	2.637150e-01	7.255798e-01
128           	2.146382e-02	1.729474e-21	9.911144e-01	-4.955572e-01	-2.315821e-01	1.073191e-02	-4.848253e-01	5.062891e-01	1.073191e-02	-1.073191e-02	2.639751e-01	7.271393e-01
129           	2.137094e-02	1.737792e-21	9.928510e-01	-4.964255e-01	-2.321932e-01	1.068547e-02	-4.857400e-01	5.071110e-01	1.068547e-02	-1.068547e-02	2.642323e-01	7.286186e-01
130           	2.128231e-02	1.722455e-21	9.945465e-01	-4.972733e-01	-2.327863e-01	1.064116e-02	-4.866321e-01	5.079144e-01	1.064116e-02	-1.064116e-02	2.644870e-01	7.300595e-01
131           	2.119467e-02	1.732713e-21	9.962321e-01	-4.981160e-01	-2.333784e-01	1.059733e-02	-4.875187e-01	5.087134e-01	1.059733e-02	-1.059733e-02	2.647376e-01	7.314944e-01
132           	2.110695e-02	1.717346e-21	9.978896e-01	-4.989448e-01	-2.339535e-01	1.055348e-02	-4.883913e-01	5.094983e-01	1.055348e-02	-1.055348e-02	2.649913e-01	7.328983e-01
133           	2.100472e-02	1.727566e-21	9.994775e-01	-4.997388e-01	-2.344947e-01	1.050236e-02	-4.892364e-01	5.102411e-01	1.050236e-02	-1.050236e-02	2.652441e-01	7.342334e-01
134           	2.090126e-02	1.712828e-21	1.001000e+00	-5.005002e-01	-2.350043e-01	1.045063e-02	-4.900495e-01	5.109508e-01	1.045063e-02	-1.045063e-02	2.654959e-01	7.355045e-01
135           	2.079609e-02	1.724360e-21	1.002479e+00	-5.012397e-01	-2.354990e-01	1.039804e-02	-4.908416e-01	5.116377e-01	1.039804e-02	-1.039804e-02	2.657406e-01	7.367387e-01
136           	2.069197e-02	1.709430e-21	1.003921e+00	-5.019605e-01	-2.359772e-01	1.034598e-02	-4.916145e-01	5.123065e-01	1.034598e-02	-1.034598e-02	2.659833e-01	7.379377e-01
137           	2.058380e-02	1.721872e-21	1.005333e+00	-5.026666e-01	-2.364441e-01	1.029190e-02	-4.923747e-01	5.129585e-01	1.029190e-02	-1.029190e-02	2.662225e-01	7.391107e-01
138           	2.047598e-02	1.707775e-21	1.006697e+00	-5.033484e-01	-2.368865e-01	1.023799e-02	-4.931104e-01	5.135864e-01	1.023799e-02	-1.023799e-02	2.664619e-01	7.402349e-01
139           	2.036353e-02	1.721694e-21	1.008010e+00	-5.040050e-01	-2.373073e-01	1.018176e-02	-4.938232e-01	5.141868e-01	1.018176e-02	-1.018176e-02	2.666977e-01	7.413123e-01
140           	2.025172e-02	1.707275e-21	1.009284e+00	-5.046418e-01	-2.377078e-01	1.012586e-02	-4.945159e-01	5.147676e-01	1.012586e-02	-1.012586e-02	2.669339e-01	7.423496e-01
141           	2.013298e-02	1.721683e-21	1.010506e+00	-5.052529e-01	-2.380853e-01	1.006649e-02	-4.951865e-01	5.153194e-01	1.006649e-02	-1.006649e-02	2.671676e-01	7.433383e-01
142           	2.001575e-02	1.705740e-21	1.011675e+00	-5.058373e-01	-2.384382e-01	1.000787e-02	-4.958294e-01	5.158452e-01	1.000787e-02	-1.000787e-02	2.673990e-01	7.442755e-01
143           	1.989550e-02	1.723069e-21	1.012796e+00	-5.063981e-01	-2.387747e-01	9.947752e-03	-4.964503e-01	5.163458e-01	9.947752e-03	-9.947752e-03	2.676234e-01	7.451728e-01
144           	1.977815e-02	1.708204e-21	1.013887e+00	-5.069434e-01	-2.390983e-01	9.889077e-03	-4.970543e-01	5.168325e-01	9.889077e-03	-9.889077e-03	2.678451e-01	7.460417e-01
145           	1.965770e-02	1.724243e-21	1.014941e+00	-5.074706e-01	-2.394082e-01	9.828852e-03	-4.976418e-01	5.172995e-01	9.828852e-03	-9.828852e-03	2.680625e-01	7.468788e-01
146           	1.953793e-02	1.708127e-21	1.015951e+00	-5.079755e-01	-2.396961e-01	9.768966e-03	-4.982066e-01	5.177445e-01	9.768966e-03	-9.768966e-03	2.682794e-01	7.476716e-01
147           	1.941584e-02	1.727093e-21	1.016908e+00	-5.084540e-01	-2.399635e-01	9.707920e-03	-4.987461e-01	5.181620e-01	9.707920e-03	-9.707920e-03	2.684905e-01	7.484176e-01
148           	1.929524e-02	1.710842e-21	1.017820e+00	-5.089098e-01	-2.402104e-01	9.647620e-03	-4.992622e-01	5.185575e-01	9.647620e-03	-9.647620e-03	2.686994e-01	7.491203e-01
149           	1.917423e-02	1.727476e-21	1.018708e+00	-5.093539e-01	-2.404489e-01	9.587117e-03	-4.997668e-01	5.189411e-01	9.587117e-03	-9.587117e-03	2.689051e-01	7.498028e-01
150           	1.905297e-02	1.714285e-21	1.019551e+00	-5.097756e-01	-2.406696e-01	9.526487e-03	-5.002491e-01	5.193021e-01	9.526487e-03	-9.526487e-03	2.691060e-01	7.504452e-01
151           	1.893078e-02	1.731089e-21	1.020355e+00	-5.101773e-01	-2.408703e-01	9.465390e-03	-5.007119e-01	5.196426e-01	9.465390e-03	-9.465390e-03	2.693070e-01	7.510475e-01
152           	1.881332e-02	1.715765e-21	1.021102e+00	-5.105511e-01	-2.410552e-01	9.406660e-03	-5.011444e-01	5.199578e-01	9.406660e-03	-9.406660e-03	2.694959e-01	7.516063e-01
153           	1.869337e-02	1.732532e-21	1.021827e+00	-5.109137e-01	-2.412295e-01	9.346686e-03	-5.015670e-01	5.202603e-01	9.346686e-03	-9.346686e-03	2.696842e-01	7.521431e-01
154           	1.857435e-02	1.719984e-21	1.022522e+00	-5.112611e-01	-2.413938e-01	9.287177e-03	-5.019739e-01	5.205482e-01	9.287177e-03	-9.287177e-03	2.698672e-01	7.526549e-01
155           	1.845837e-02	1.735012e-21	1.023194e+00	-5.115968e-01	-2.415429e-01	9.229183e-03	-5.023676e-01	5.208260e-01	9.229183e-03	-9.229183e-03	2.700539e-01	7.531397e-01
156           	1.834693e-02	1.722811e-21	1.023794e+00	-5.118971e-01	-2.416736e-01	9.173463e-03	-5.027237e-01	5.210706e-01	9.173463e-03	-9.173463e-03	2.702236e-01	7.535707e-01
157           	1.822958e-02	1.739458e-21	1.024368e+00	-5.121841e-01	-2.417905e-01	9.114792e-03	-5.030693e-01	5.212989e-01	9.114792e-03	-9.114792e-03	2.703936e-01	7.539746e-01
158           	1.811298e-02	1.726738e-21	1.024926e+00	-5.124628e-01	-2.419009e-01	9.056490e-03	-5.034063e-01	5.215193e-01	9.056490e-03	-9.056490e-03	2.705619e-01	7.543636e-01
159           	1.800336e-02	1.741580e-21	1.025458e+00	-5.127290e-01	-2.420036e-01	9.001682e-03	-5.037273e-01	5.217307e-01	9.001682e-03	-9.001682e-03	2.707254e-01	7.547325e-01
160           	1.790091e-02	1.728021e-21	1.025944e+00	-5.129719e-01	-2.420927e-01	8.950456e-03	-5.040215e-01	5.219224e-01	8.950456e-03	-8.950456e-03	2.708792e-01	7.550647e-01
161           	1.779297e-02	1.746194e-21	1.026396e+00	-5.131981e-01	-2.421684e-01	8.896486e-03	-5.043016e-01	5.220946e-01	8.896486e-03	-8.896486e-03	2.710297e-01	7.553665e-01
162           	1.768579e-02	1.732606e-21	1.026832e+00	-5.134159e-01	-2.422331e-01	8.842896e-03	-5.045730e-01	5.222588e-01	8.842896e-03	-8.842896e-03	2.711828e-01	7.556490e-01
163           	1.758154e-02	1.748982e-21	1.027231e+00	-5.136153e-01	-2.422900e-01	8.790770e-03	-5.048246e-01	5.224061e-01	8.790770e-03	-8.790770e-03	2.713253e-01	7.559054e-01
164           	1.748376e-02	1.734040e-21	1.027597e+00	-5.137985e-01	-2.423371e-01	8.741880e-03	-5.050566e-01	5.225404e-01	8.741880e-03	-8.741880e-03	2.714613e-01	7.561356e-01
165           	1.738317e-02	1.752542e-21	1.027941e+00	-5.139705e-01	-2.423783e-01	8.691586e-03	-5.052789e-01	5.226621e-01	8.691586e-03	-8.691586e-03	2.715923e-01	7.563488e-01
166           	1.728914e-02	1.738685e-21	1.028282e+00	-5.141411e-01	-2.424160e-01	8.644568e-03	-5.054965e-01	5.227857e-01	8.644568e-03	-8.644568e-03	2.717251e-01	7.565571e-01
167           	1.719876e-02	1.755054e-21	1.028590e+00	-5.142949e-01	-2.424446e-01	8.599382e-03	-5.056955e-01	5.228942e-01	8.599382e-03	-8.599382e-03	2.718502e-01	7.567395e-01