# p  FACE_DATA 64
# x  y  z  p
0.995433 -0.000644209 0.5 142.252
0.984831 -0.00212864 0.5 129.347
0.970874 -0.00405279 0.5 121.878
0.952651 -0.00651541 0.5 115.477
0.92911 -0.00961652 0.5 110.591
0.899115 -0.0134429 0.5 107.058
0.861558 -0.0180463 0.5 105.627
0.815544 -0.0234154 0.5 107.422
0.760644 -0.0294447 0.5 113.796
0.697166 -0.0359067 0.5 125.785
0.62637 -0.0424369 0.5 140.722
0.550507 -0.0485469 0.5 156.791
0.472613 -0.0536799 0.5 178.278
0.396061 -0.0573136 0.5 212.504
0.324014 -0.0590844 0.5 266.973
0.258939 -0.0588791 0.5 345.632
0.202341 -0.0568489 0.5 449.737
0.154745 -0.0533418 0.5 579.239
0.115879 -0.0487949 0.5 730.699
0.084939 -0.0436345 0.5 900.1
0.060851 -0.0382149 0.5 1081.29
0.0424779 -0.0327982 0.5 1253.05
0.0287493 -0.0275622 0.5 1366.91
0.0187286 -0.0226235 0.5 1362.5
0.0116303 -0.0180642 0.5 1164.39
0.00680434 -0.0139552 0.5 659.001
0.00370185 -0.0103648 0.5 -224.059
0.00184498 -0.00734508 0.5 -1388.03
0.000823383 -0.00490548 0.5 -2581.96
0.000313391 -0.00300173 0.5 -3579.75
8.97941e-05 -0.00155219 0.5 -4317.61
1.37904e-05 -0.000464655 0.5 -4796.34
1.37904e-05 0.000464655 0.5 -5212.33
8.97941e-05 0.00155219 0.5 -5591.25
0.000313391 0.00300173 0.5 -6158.71
0.000823383 0.00490548 0.5 -6739.19
0.00184498 0.00734508 0.5 -7144.5
0.00370185 0.0103648 0.5 -7212.01
0.00680434 0.0139552 0.5 -6832.91
0.0116303 0.0180642 0.5 -6103.6
0.0187286 0.0226235 0.5 -5254.46
0.0287493 0.0275622 0.5 -4457.76
0.0424779 0.0327982 0.5 -3771.03
0.060851 0.0382149 0.5 -3196.26
0.084939 0.0436345 0.5 -2716.3
0.115879 0.0487949 0.5 -2311.29
0.154745 0.0533418 0.5 -1961.09
0.202341 0.0568489 0.5 -1655.4
0.258939 0.0588791 0.5 -1386.74
0.324014 0.0590844 0.5 -1144.8
0.396061 0.0573136 0.5 -926.689
0.472613 0.0536799 0.5 -735.112
0.550507 0.0485469 0.5 -570.196
0.62637 0.0424369 0.5 -428.148
0.697166 0.0359067 0.5 -307.167
0.760644 0.0294447 0.5 -203.28
0.815544 0.0234154 0.5 -119.772
0.861558 0.0180463 0.5 -51.5635
0.899115 0.0134429 0.5 -1.71223
0.92911 0.00961652 0.5 36.9761
0.952651 0.00651541 0.5 63.2803
0.970874 0.00405279 0.5 80.424
0.984831 0.00212864 0.5 95.1783
0.995433 0.000644209 0.5 110.086
