# p  FACE_DATA 64
# x  y  z  p
0.995433 -0.000644209 0.5 142.251
0.984831 -0.00212864 0.5 129.344
0.970874 -0.00405279 0.5 121.876
0.952651 -0.00651541 0.5 115.475
0.92911 -0.00961652 0.5 110.59
0.899115 -0.0134429 0.5 107.056
0.861558 -0.0180463 0.5 105.625
0.815544 -0.0234154 0.5 107.421
0.760644 -0.0294447 0.5 113.795
0.697166 -0.0359067 0.5 125.784
0.62637 -0.0424369 0.5 140.721
0.550507 -0.0485469 0.5 156.792
0.472613 -0.0536799 0.5 178.276
0.396061 -0.0573136 0.5 212.503
0.324014 -0.0590844 0.5 266.973
0.258939 -0.0588791 0.5 345.631
0.202341 -0.0568489 0.5 449.737
0.154745 -0.0533418 0.5 579.238
0.115879 -0.0487949 0.5 730.699
0.084939 -0.0436345 0.5 900.1
0.060851 -0.0382149 0.5 1081.29
0.0424779 -0.0327982 0.5 1253.05
0.0287493 -0.0275622 0.5 1366.91
0.0187286 -0.0226235 0.5 1362.5
0.0116303 -0.0180642 0.5 1164.39
0.00680434 -0.0139552 0.5 659.017
0.00370185 -0.0103648 0.5 -224.006
0.00184498 -0.00734508 0.5 -1387.95
0.000823383 -0.00490548 0.5 -2581.84
0.000313391 -0.00300173 0.5 -3579.92
8.97941e-05 -0.00155219 0.5 -4318.02
1.37904e-05 -0.000464655 0.5 -4796.99
1.37904e-05 0.000464655 0.5 -5212.95
8.97941e-05 0.00155219 0.5 -5592.05
0.000313391 0.00300173 0.5 -6159.38
0.000823383 0.00490548 0.5 -6739.8
0.00184498 0.00734508 0.5 -7144.68
0.00370185 0.0103648 0.5 -7212.01
0.00680434 0.0139552 0.5 -6832.88
0.0116303 0.0180642 0.5 -6103.54
0.0187286 0.0226235 0.5 -5254.39
0.0287493 0.0275622 0.5 -4457.68
0.0424779 0.0327982 0.5 -3770.92
0.060851 0.0382149 0.5 -3196.19
0.084939 0.0436345 0.5 -2716.26
0.115879 0.0487949 0.5 -2311.28
0.154745 0.0533418 0.5 -1961.09
0.202341 0.0568489 0.5 -1655.4
0.258939 0.0588791 0.5 -1386.74
0.324014 0.0590844 0.5 -1144.8
0.396061 0.0573136 0.5 -926.689
0.472613 0.0536799 0.5 -735.114
0.550507 0.0485469 0.5 -570.198
0.62637 0.0424369 0.5 -428.152
0.697166 0.0359067 0.5 -307.173
0.760644 0.0294447 0.5 -203.291
0.815544 0.0234154 0.5 -119.784
0.861558 0.0180463 0.5 -51.5755
0.899115 0.0134429 0.5 -1.72303
0.92911 0.00961652 0.5 36.9645
0.952651 0.00651541 0.5 63.2695
0.970874 0.00405279 0.5 80.4129
0.984831 0.00212864 0.5 95.1671
0.995433 0.000644209 0.5 110.075
